<?xml version="1.0"?>
<VTKFile type="PolyData" version="1.0" byte_order="LittleEndian" header_type="UInt32" compressor="vtkZLibDataCompressor">
	<PolyData>
		<Piece NumberOfPoints="4" NumberOfLines="4">
			<PointData>
				<DataArray type="Float64" Name="points" format="ascii" NumberOfComponents="3" RangeMin="0.100000001" RangeMax="9.39999962">0.1 0.2 0.3 2.1 9.4 6.7 7.5 5.2 6.3 8.7 1.4 4.7 </DataArray>
			</PointData>
			<Points>
				<DataArray type="Float64" Name="Points" format="ascii" NumberOfComponents="3" RangeMin="0.10000000000000001" RangeMax="9.4000000000000004">0.1 0.2 0.3 2.1 9.4 6.7 7.5 5.2 6.3 8.7 1.4 4.7 </DataArray>
			</Points>
			<CellData>
				<DataArray type="Float64" Name="edges" format="ascii" NumberOfComponents="2" RangeMin="0" RangeMax="3">0 1 0 2 3 2 1 2 </DataArray>
			</CellData>
			<Lines>
				<DataArray type="Int64" Name="connectivity" format="ascii" RangeMin="0" RangeMax="3">0 1 0 2 3 2 1 2 </DataArray>
				<DataArray type="Int64" Name="offsets" format="ascii" RangeMin="0" RangeMax="4">2 4 6 8 </DataArray>
			</Lines>
		</Piece>
	</PolyData>
</VTKFile>
