<?xml version="1.0"?>
<VTKFile type="PolyData" version="1.0" byte_order="LittleEndian" header_type="UInt32" compressor="vtkZLibDataCompressor">
	<PolyData>
		<Piece NumberOfPoints="484" NumberOfPolys="380">
			<PointData>
				<DataArray type="Float64" Name="points" format="ascii" NumberOfComponents="3" RangeMin="-4.21385384" RangeMax="4.77257776">-0.0344 3.49326 -2.56294 -0.746606 3.49326 -2.41103 -0.751494 4.69435 -2.59299 -0.0344 4.66004 -2.72529 -1.4469 3.49326 -1.97797 -1.39839 4.74693 -2.20902 -1.79945 3.49326 -1.44466 -1.91178 4.77258 -1.61271 -2.0258 3.49326 -0.795094 -2.24139 4.77258 -0.886411 -2.1038 3.49326 -0.022052 -2.35496 4.77258 -0.022052 -2.0258 3.49326 0.75099 -2.24139 4.77258 0.842307 -1.79945 3.49326 1.40056 -1.91178 4.77258 1.56861 -1.4469 3.49326 1.93387 -1.39839 4.74693 2.16492 -0.769369 3.49326 2.36009 -0.751494 4.69435 2.54888 -0.0344 3.49326 2.51444 -0.0344 4.66004 2.67666 -0.751495 0.130125 -2.59299 -0.0344 0.130125 -2.72529 -0.0344 0.57239 -0.022052 -1.39839 0.228344 -2.20902 -1.91178 0.409344 -1.61271 -2.24139 0.507502 -0.886411 -2.35496 0.577983 -0.022052 -2.24139 0.507502 0.842307 -1.91178 0.409344 1.56861 -1.39839 0.228344 2.16492 -0.751494 0.130125 2.54888 -0.0344 0.130125 2.67666 -0.0344 4.66004 -2.72529 -0.751494 4.69435 -2.59299 -0.0344 4.4761 -0.022052 -1.39839 4.74693 -2.20902 -1.91178 4.77258 -1.61271 -2.24139 4.77258 -0.886411 -2.35496 4.77258 -0.022052 -2.24139 4.77258 0.842307 -1.91178 4.77258 1.56861 -1.39839 4.74693 2.16492 -0.751494 4.69435 2.54888 -0.0344 4.66004 2.67666 -0.0344 1.3315 -2.65285 -0.751495 1.3315 -2.53987 -0.769231 2.52268 -2.42928 -0.0344 2.52268 -2.56294 -1.39839 1.3315 -2.20902 -1.46662 2.52268 -2.03076 -1.91178 1.3315 -1.61271 -1.75379 2.52268 -1.48306 -2.17435 1.3315 -0.886411 -1.93816 2.52268 -0.815959 -2.29561 1.3315 -0.022052 -2.00169 2.52268 -0.022052 -2.19511 1.3315 0.842307 -1.93816 2.52268 0.771855 -1.88773 1.3315 1.53967 -1.75379 2.52268 1.43896 -1.39839 1.3315 2.16492 -1.46662 2.52268 1.98666 -0.751494 1.3315 2.50364 -0.772059 2.52268 2.36009 -0.0344 1.3315 2.59863 -0.0344 2.52268 2.51444 -0.0344 0.282663 -2.8649 -0.823894 0.282663 -2.72047 -0.823894 1.3315 -2.66735 -0.0344 1.3315 -2.79246 -1.52391 0.380882 -2.30754 -1.52391 1.3315 -2.30754 -2.06804 0.561882 -1.67818 -2.06804 1.3315 -1.67818 -2.41302 0.66004 -0.918576 -2.34598 1.3315 -0.918576 -2.53151 0.730521 -0.022052 -2.47216 1.3315 -0.022052 -2.41302 0.66004 0.874472 -2.36674 1.3315 0.874472 -2.06804 0.561882 1.63407 -2.04399 1.3315 1.60513 -1.52391 0.380882 2.26344 -1.52391 1.3315 2.26344 -0.823893 0.282663 2.67636 -0.823893 1.3315 2.63112 -0.0344 0.282663 2.83422 -0.0344 1.3315 2.7562 -0.823894 0.130125 -2.72047 -0.0344 0.130125 -2.8649 -0.751495 1.3315 -2.53987 -0.0344 1.3315 -2.65285 -1.52391 0.228344 -2.30754 -1.39839 1.3315 -2.20902 -2.06804 0.409344 -1.67818 -1.91178 1.3315 -1.61271 -2.41302 0.507502 -0.918576 -2.17435 1.3315 -0.886411 -2.53151 0.577983 -0.022052 -2.29561 1.3315 -0.022052 -2.41302 0.507502 0.874472 -2.19511 1.3315 0.842307 -2.06804 0.409344 1.63407 -1.88773 1.3315 1.53967 -1.52391 0.228344 2.26344 -1.39839 1.3315 2.16492 -0.823893 0.130125 2.67636 -0.751494 1.3315 2.50364 -0.0344 0.130125 2.83422 -0.0344 1.3315 2.59863 -0.781923 0.340472 -3.34805 -0.0344 0.340472 -3.57671 -0.0344 0.537192 -4.00029 -0.865588 0.553411 -3.75283 -0.015451 0.249473 -3.57671 -0.781923 0.249473 -3.34805 -0.865588 0.400873 -3.75283 -0.0344 0.384654 -4.00029 -1.7248 0.399066 -2.74593 -2.05218 0.700237 -3.10557 -1.7248 0.308067 -2.74593 -2.05218 0.547699 -3.10557 -2.34592 0.507044 -2.03123 -2.79495 0.793754 -2.33236 -2.34592 0.466811 -2.03123 -2.79495 0.732266 -2.33236 -2.7394 0.580814 -1.10784 -3.11037 1.07182 -1.23796 -2.7394 0.562605 -1.10784 -3.11037 0.842107 -1.23796 -2.83875 0.669153 -0.022052 -3.23206 1.17795 -0.022052 -2.83875 0.609911 -0.022052 -3.23206 0.948245 -0.022052 -2.7394 0.580814 1.06374 -3.09099 1.10135 1.23241 -2.7394 0.54025 1.06374 -3.09099 0.871645 1.23241 -2.34592 0.507044 1.98712 -2.7773 0.953484 2.28609 -2.34592 0.429825 1.98712 -2.7773 0.800946 2.28609 -1.7248 0.399066 2.70183 -2.05218 0.802252 3.06147 -1.7248 0.308067 2.70183 -2.05218 0.649714 3.06147 -0.78192 0.340472 3.30395 -0.85871 0.57721 3.67978 -0.78192 0.249473 3.30395 -0.85871 0.424672 3.67978 -0.0344 0.340472 3.5326 -0.0344 0.530215 3.84547 -0.0344 0.249473 3.5326 -0.0344 0.402693 3.84547 -0.0344 0.130125 -2.8649 -0.823894 0.130125 -2.72047 -1.52391 0.228344 -2.30754 -2.06804 0.409344 -1.67818 -2.41302 0.507502 -0.918576 -2.53151 0.577983 -0.022052 -2.41302 0.507502 0.874472 -2.06804 0.409344 1.63407 -1.52391 0.228344 2.26344 -0.823893 0.130125 2.67636 -0.0344 0.130125 2.83422 -0.0344 0.282663 2.83422 -0.823893 0.282663 2.67636 -1.52391 0.380882 2.26344 -2.06804 0.561882 1.63407 -2.41302 0.66004 0.874472 -2.53151 0.730521 -0.022052 -2.41302 0.66004 -0.918576 -2.06804 0.561882 -1.67818 -1.52391 0.380882 -2.30754 -0.823894 0.282663 -2.72047 -0.0344 0.282663 -2.8649 -0.0344 0.589297 -4.10777 -0.869538 0.663207 -3.89456 -2.15592 0.846941 -3.20213 -2.88945 0.978742 -2.42408 -3.2188 1.23977 -1.31163 -3.34788 1.34591 -0.022052 -3.20918 1.25444 1.28668 -2.88695 1.08119 2.32146 -2.13806 0.868175 3.12571 -0.887083 0.649851 3.76697 -0.0344 0.586603 3.927 -0.0344 0.459081 3.927 -0.887083 0.497313 3.76697 -2.13806 0.715637 3.12571 -2.88695 0.928653 2.32146 -3.20918 1.02474 1.28668 -3.34788 1.1162 -0.022052 -3.2188 1.01006 -1.31163 -2.88945 0.871431 -2.42408 -2.15592 0.694403 -3.20213 -0.869538 0.510669 -3.89456 -0.0344 0.436759 -4.10777 -0.0344 0.576503 -4.19294 -0.0344 0.545644 -4.21385 -0.823442 0.677094 -4.02919 -0.851438 0.704302 -4.00471 -2.21428 0.898458 -3.28909 -2.20761 0.913142 -3.26968 -0.0344 0.477241 -4.21385 -0.0344 0.446834 -4.1915 -0.879207 0.585849 -3.96306 -0.848911 0.621782 -3.99453 -2.21325 0.781882 -3.28577 -2.21498 0.826447 -3.30575 -2.9287 1.06571 -2.51707 -2.9182 1.07541 -2.49482 -2.94401 0.952947 -2.49611 -2.94938 0.998373 -2.51213 -3.27121 1.30962 -1.38873 -3.25325 1.31278 -1.38906 -3.28384 1.11632 -1.36809 -3.29307 1.16573 -1.37997 -3.40801 1.4161 -0.022052 -3.39036 1.42168 -0.040673 -3.41799 1.22153 -0.039394 -3.42899 1.27153 -0.022052 -3.27125 1.30965 1.34431 -3.25896 1.32204 1.30749 -3.28397 1.11828 1.31821 -3.29304 1.1657 1.33619 -3.25896 1.32204 1.30749 -2.94347 1.11265 2.35161 -2.93753 1.13404 2.32155 -2.94826 0.995344 2.34972 -2.95948 1.04334 2.36112 -2.16903 0.837924 3.18657 -2.18152 0.868241 3.15349 -2.16835 0.765307 3.1478 -2.16456 0.807479 3.17251 -0.846103 0.625209 3.8584 -0.851219 0.652778 3.8302 -0.910606 0.523476 3.82195 -0.896708 0.559322 3.84767 -0.0344 0.562771 4.00852 -0.0344 0.586074 3.98748 -0.0344 0.477578 3.98653 -0.0344 0.505585 4.00852 -0.823442 0.677094 -4.02919 -0.0344 0.545644 -4.21385 -2.21428 0.898458 -3.28909 -2.9287 1.06571 -2.51707 -3.27121 1.30962 -1.38873 -3.40801 1.4161 -0.022052 -3.27125 1.30965 1.34431 -2.94347 1.11265 2.35161 -2.16903 0.837924 3.18657 -0.846103 0.625209 3.8584 -0.0344 0.562771 4.00852 0.682694 4.69435 -2.59299 0.677806 3.49326 -2.41103 1.32959 4.74693 -2.20902 1.3781 3.49326 -1.97797 1.84298 4.77258 -1.61271 1.73065 3.49326 -1.44466 2.17259 4.77258 -0.886411 1.95701 3.49326 -0.795094 2.28616 4.77258 -0.022052 2.035 3.49326 -0.022052 2.17259 4.77258 0.842307 1.95701 3.49326 0.75099 1.95701 3.49326 0.75099 2.17259 4.77258 0.842307 1.84298 4.77258 1.56861 1.73065 3.49326 1.40056 1.32959 4.74693 2.16492 1.3781 3.49326 1.93387 0.682694 4.69435 2.54888 0.700569 3.49326 2.36009 0.682694 0.130125 -2.59299 1.32959 0.228344 -2.20902 1.84298 0.409344 -1.61271 2.17259 0.507502 -0.886411 2.28616 0.577983 -0.022052 2.17259 0.507502 0.842307 1.84298 0.409344 1.56861 1.32959 0.228344 2.16492 0.682694 0.130125 2.54888 0.682694 4.69435 -2.59299 1.32959 4.74693 -2.20902 1.84298 4.77258 -1.61271 2.17259 4.77258 -0.886411 2.28616 4.77258 -0.022052 2.17259 4.77258 0.842307 1.84298 4.77258 1.56861 1.32959 4.74693 2.16492 0.682694 4.69435 2.54888 0.700431 2.52268 -2.42928 0.682694 1.3315 -2.53987 1.39782 2.52268 -2.03076 1.32959 1.3315 -2.20902 1.68499 2.52268 -1.48306 1.84298 1.3315 -1.61271 1.86936 2.52268 -0.815959 2.10555 1.3315 -0.886411 1.93289 2.52268 -0.022052 2.22681 1.3315 -0.022052 1.86936 2.52268 0.771855 2.12631 1.3315 0.842307 2.12631 1.3315 0.842307 1.86936 2.52268 0.771855 1.68499 2.52268 1.43896 1.81893 1.3315 1.53967 1.39782 2.52268 1.98666 1.32959 1.3315 2.16492 0.703259 2.52268 2.36009 0.682694 1.3315 2.50364 0.755094 1.3315 -2.66735 0.755094 0.282663 -2.72047 1.45511 1.3315 -2.30754 1.45511 0.380882 -2.30754 1.99924 1.3315 -1.67818 1.99924 0.561882 -1.67818 2.27718 1.3315 -0.918576 2.34422 0.66004 -0.918576 2.40336 1.3315 -0.022052 2.46271 0.730521 -0.022052 2.29794 1.3315 0.874472 2.34422 0.66004 0.874472 2.34422 0.66004 0.874472 2.29794 1.3315 0.874472 1.9752 1.3315 1.60513 1.99924 0.561882 1.63407 1.45511 1.3315 2.26344 1.45511 0.380882 2.26344 0.755093 1.3315 2.63112 0.755093 0.282663 2.67636 0.755094 0.130125 -2.72047 0.682694 1.3315 -2.53987 1.45511 0.228344 -2.30754 1.32959 1.3315 -2.20902 1.99924 0.409344 -1.67818 1.84298 1.3315 -1.61271 2.34422 0.507502 -0.918576 2.10555 1.3315 -0.886411 2.46271 0.577983 -0.022052 2.22681 1.3315 -0.022052 2.34422 0.507502 0.874472 2.12631 1.3315 0.842307 1.99924 0.409344 1.63407 1.81893 1.3315 1.53967 2.12631 1.3315 0.842307 1.45511 0.228344 2.26344 1.32959 1.3315 2.16492 0.755093 0.130125 2.67636 0.682694 1.3315 2.50364 0.713123 0.340472 -3.34805 0.796788 0.553411 -3.75283 -0.053349 0.249473 -3.57671 0.796788 0.400873 -3.75283 0.713123 0.249473 -3.34805 1.656 0.399066 -2.74593 1.98338 0.700237 -3.10557 1.98338 0.547699 -3.10557 1.656 0.308067 -2.74593 2.27712 0.507044 -2.03123 2.72615 0.793754 -2.33236 2.72615 0.732266 -2.33236 2.27712 0.466811 -2.03123 2.6706 0.580814 -1.10784 3.04157 1.07182 -1.23796 3.04157 0.842107 -1.23796 2.6706 0.562605 -1.10784 2.76995 0.669153 -0.022052 3.16326 1.17795 -0.022052 3.16326 0.948245 -0.022052 2.76995 0.609911 -0.022052 2.6706 0.580814 1.06374 3.02219 1.10135 1.23241 3.02219 0.871645 1.23241 2.6706 0.54025 1.06374 2.27712 0.507044 1.98712 2.7085 0.953484 2.28609 2.7085 0.800946 2.28609 2.27712 0.429825 1.98712 1.656 0.399066 2.70183 1.98338 0.802252 3.06147 1.98338 0.649714 3.06147 1.656 0.308067 2.70183 0.71312 0.340472 3.30395 0.78991 0.57721 3.67978 0.78991 0.424672 3.67978 0.71312 0.249473 3.30395 -0.0344 0.340472 3.5326 -0.0344 0.530215 3.84547 -0.0344 0.402693 3.84547 -0.0344 0.249473 3.5326 0.755094 0.130125 -2.72047 1.45511 0.228344 -2.30754 1.99924 0.409344 -1.67818 2.34422 0.507502 -0.918576 2.46271 0.577983 -0.022052 2.34422 0.507502 0.874472 1.99924 0.409344 1.63407 1.45511 0.228344 2.26344 0.755093 0.130125 2.67636 -0.0344 0.130125 2.83422 -0.0344 0.282663 2.83422 0.755093 0.282663 2.67636 1.45511 0.380882 2.26344 1.99924 0.561882 1.63407 2.34422 0.66004 0.874472 2.46271 0.730521 -0.022052 2.34422 0.66004 -0.918576 1.99924 0.561882 -1.67818 1.45511 0.380882 -2.30754 0.755094 0.282663 -2.72047 0.800738 0.663207 -3.89456 2.08712 0.846941 -3.20213 2.82065 0.978742 -2.42408 3.15 1.23977 -1.31163 3.27908 1.34591 -0.022052 3.14038 1.25444 1.28668 2.81815 1.08119 2.32146 2.06926 0.868175 3.12571 0.818283 0.649851 3.76697 -0.0344 0.586603 3.927 0.818283 0.497313 3.76697 -0.0344 0.459081 3.927 2.06926 0.715637 3.12571 2.81815 0.928653 2.32146 3.14038 1.02474 1.28668 3.27908 1.1162 -0.022052 3.15 1.01006 -1.31163 2.82065 0.871431 -2.42408 2.08712 0.694403 -3.20213 0.800738 0.510669 -3.89456 0.782638 0.704302 -4.00471 0.754642 0.677094 -4.02919 2.13881 0.913142 -3.26968 2.14548 0.898458 -3.28909 0.780111 0.621782 -3.99453 0.810407 0.585849 -3.96306 2.14618 0.826447 -3.30575 2.14445 0.781882 -3.28577 2.8494 1.07541 -2.49482 2.8599 1.06571 -2.51707 2.88058 0.998373 -2.51213 2.87521 0.952947 -2.49611 3.18445 1.31278 -1.38906 3.20241 1.30962 -1.38873 3.22427 1.16573 -1.37997 3.21504 1.11632 -1.36809 3.32156 1.42168 -0.040673 3.33921 1.4161 -0.022052 3.36019 1.27153 -0.022052 3.34919 1.22153 -0.039394 3.19016 1.32204 1.30749 3.20245 1.30965 1.34431 3.22424 1.1657 1.33619 3.21517 1.11828 1.31821 2.86873 1.13404 2.32155 2.87467 1.11265 2.35161 2.89068 1.04334 2.36112 2.87946 0.995344 2.34972 2.11272 0.868241 3.15349 2.10023 0.837924 3.18657 2.09576 0.807479 3.17251 2.09955 0.765307 3.1478 0.782419 0.652778 3.8302 0.777303 0.625209 3.8584 0.827908 0.559322 3.84767 0.841806 0.523476 3.82195 -0.0344 0.586074 3.98748 -0.0344 0.562771 4.00852 -0.0344 0.505585 4.00852 -0.0344 0.477578 3.98653 0.754642 0.677094 -4.02919 2.14548 0.898458 -3.28909 2.8599 1.06571 -2.51707 3.20241 1.30962 -1.38873 3.33921 1.4161 -0.022052 3.20245 1.30965 1.34431 2.87467 1.11265 2.35161 2.10023 0.837924 3.18657 0.777303 0.625209 3.8584 -0.0344 0.562771 4.00852 </DataArray>
				<DataArray type="Float64" Name="lambert2SG" format="ascii" NumberOfComponents="2" RangeMin="0.0031249999999999997" RangeMax="0.98759299999999994">0.094832 0.332542 0.094898 0.376287 0.02427 0.372826 0.026265 0.332319 0.095031 0.425584 0.021479 0.41466 0.09492 0.463978 0.019723 0.458455 0.094834 0.505035 0.019154 0.503036 0.095175 0.551185 0.019303 0.552076 0.09592 0.597323 0.020303 0.601106 0.096959 0.638355 0.02192 0.645665 0.097993 0.676721 0.02472 0.689413 0.09899 0.7246 0.028507 0.731176 0.100089 0.769556 0.031498 0.771601 0.625671 0.131366 0.667361 0.123777 0.667361 0.283352 0.588028 0.154305 0.557903 0.190301 0.538759 0.232921 0.532169 0.283349 0.538757 0.333777 0.5579 0.3764 0.588023 0.412396 0.625667 0.435336 0.667357 0.442667 0.701803 0.665625 0.743838 0.673233 0.701804 0.823361 0.78192 0.695516 0.812079 0.730322 0.831342 0.772815 0.837985 0.823359 0.831343 0.873903 0.81208 0.916398 0.781923 0.951204 0.743839 0.973488 0.701803 0.980834 0.220878 0.33297 0.220898 0.3736 0.151363 0.376972 0.151322 0.332731 0.221058 0.41421 0.151686 0.424532 0.221832 0.457948 0.151551 0.461361 0.22239 0.500896 0.151569 0.502846 0.223411 0.549658 0.151975 0.550518 0.223816 0.598279 0.152719 0.598199 0.223596 0.640559 0.153598 0.639627 0.224294 0.684796 0.154639 0.676477 0.225308 0.725559 0.155475 0.723222 0.226169 0.76593 0.156648 0.767906 0.366621 0.314135 0.370778 0.360637 0.309866 0.366524 0.305702 0.320589 0.36826 0.408194 0.313021 0.411675 0.360451 0.457158 0.315734 0.459358 0.356888 0.505806 0.317555 0.50596 0.353674 0.55835 0.31849 0.55841 0.357077 0.61096 0.317888 0.61057 0.360723 0.659716 0.315919 0.656589 0.368041 0.708813 0.312883 0.704705 0.369917 0.756557 0.309099 0.74987 0.364996 0.803308 0.304237 0.795555 0.621414 0.123954 0.667361 0.115625 0.301453 0.365519 0.29767 0.321443 0.580655 0.148631 0.304052 0.410059 0.548775 0.18652 0.306087 0.458418 0.528748 0.231058 0.307385 0.505593 0.521874 0.283349 0.308262 0.558344 0.528746 0.33564 0.307831 0.611121 0.54877 0.38018 0.306124 0.657551 0.58065 0.41807 0.303914 0.706019 0.621409 0.442748 0.300662 0.750704 0.667357 0.451863 0.295216 0.794401 0.747816 0.522723 0.704318 0.51024 0.704401 0.482888 0.752961 0.496031 0.70126 0.046407 0.65623 0.058699 0.652001 0.03321 0.700256 0.020278 0.805374 0.553052 0.825597 0.526461 0.597832 0.088207 0.579236 0.062532 0.848363 0.588283 0.874439 0.564328 0.552839 0.121926 0.527357 0.097438 0.882337 0.635905 0.91438 0.618698 0.516624 0.168647 0.4928 0.153579 0.907193 0.694808 0.943298 0.683752 0.490956 0.227274 0.462076 0.217513 0.920151 0.757238 0.957798 0.755851 0.475555 0.289288 0.445688 0.288919 0.919629 0.815368 0.959429 0.820361 0.476041 0.348003 0.438819 0.352346 0.904605 0.868256 0.939502 0.879558 0.490663 0.40128 0.457663 0.41161 0.874194 0.925303 0.892717 0.943795 0.520532 0.458895 0.50334 0.47632 0.844202 0.959233 0.856473 0.97688 0.550157 0.493334 0.538514 0.510275 0.700276 0.088498 0.651938 0.095843 0.606187 0.115449 0.564538 0.145731 0.532161 0.184574 0.508161 0.233054 0.497391 0.285863 0.49928 0.335859 0.513434 0.384338 0.537977 0.425952 0.572212 0.458276 0.82299 0.924182 0.857792 0.892443 0.882629 0.851005 0.896502 0.802679 0.898271 0.752898 0.889512 0.700251 0.866733 0.651886 0.836498 0.611867 0.796929 0.579793 0.752066 0.559312 0.704195 0.551877 0.704423 0.475821 0.75396 0.485643 0.833562 0.517538 0.883709 0.555172 0.924344 0.611108 0.954737 0.68027 0.969521 0.755551 0.969325 0.819496 0.946664 0.880731 0.898038 0.94802 0.859918 0.981532 0.534859 0.515004 0.497978 0.480376 0.450453 0.412658 0.428982 0.351334 0.433983 0.288403 0.45064 0.213761 0.483044 0.145785 0.519836 0.089047 0.571495 0.053465 0.651114 0.022736 0.700256 0.013214 0.704437 0.47095 0.704443 0.46875 0.751349 0.476932 0.753008 0.478929 0.837479 0.511086 0.837205 0.51246 0.700256 0.006714 0.700256 0.008695 0.649803 0.017065 0.651023 0.014056 0.567462 0.046878 0.566332 0.044443 0.887629 0.54768 0.887402 0.549177 0.51589 0.083218 0.514241 0.081149 0.928384 0.604863 0.927419 0.605255 0.477268 0.140294 0.474929 0.138515 0.9606 0.678425 0.95926 0.677728 0.443944 0.210482 0.440831 0.210528 0.975932 0.757202 0.974515 0.7553 0.426838 0.287997 0.423945 0.288396 0.974595 0.755269 0.9744 0.819963 0.973243 0.818164 0.423612 0.351215 0.42089 0.351427 0.950079 0.883706 0.949472 0.88108 0.44694 0.413117 0.444738 0.414779 0.898948 0.954398 0.898056 0.952251 0.494831 0.482277 0.493522 0.484396 0.862672 0.986113 0.861739 0.984539 0.532516 0.51795 0.530823 0.519367 0.651708 0.010158 0.700255 0.003125 0.563435 0.041514 0.511656 0.078216 0.467581 0.134407 0.432818 0.207824 0.415625 0.287284 0.416966 0.351371 0.443148 0.415492 0.492025 0.488817 0.528192 0.521526 0.024511 0.2918 0.095175 0.28881 0.021946 0.249934 0.095615 0.239557 0.020389 0.206043 0.095717 0.201264 0.020016 0.161181 0.095849 0.160429 0.020683 0.111413 0.096541 0.114752 0.023509 0.061055 0.098243 0.069425 0.106547 0.940132 0.031679 0.945194 0.02911 0.899236 0.104524 0.899932 0.029164 0.854539 0.103262 0.862064 0.030683 0.812234 0.10152 0.814438 0.709051 0.131368 0.746695 0.154306 0.776819 0.190302 0.795961 0.232925 0.802551 0.283353 0.795958 0.333783 0.776818 0.376404 0.74669 0.4124 0.709047 0.435337 0.659768 0.673233 0.621687 0.695518 0.591531 0.730322 0.572265 0.772815 0.565624 0.823359 0.572265 0.873901 0.591529 0.916395 0.621685 0.951202 0.659767 0.973488 0.151672 0.288502 0.221195 0.292344 0.152334 0.240987 0.221678 0.251729 0.152489 0.204257 0.222839 0.207924 0.152833 0.162999 0.223805 0.164706 0.153454 0.115847 0.224988 0.115156 0.15375 0.069172 0.224018 0.064949 0.232192 0.936509 0.161798 0.935652 0.161069 0.895255 0.231109 0.892603 0.160071 0.858971 0.229405 0.847494 0.158157 0.812511 0.227845 0.80637 0.300283 0.27483 0.361061 0.267729 0.293902 0.230155 0.348583 0.221618 0.28623 0.183238 0.330277 0.175264 0.277297 0.137773 0.31548 0.128366 0.265121 0.087103 0.298994 0.077861 0.250029 0.037095 0.287758 0.026065 0.307443 0.987593 0.269485 0.977286 0.280398 0.932431 0.324303 0.9415 0.289949 0.885442 0.34427 0.895766 0.297635 0.840959 0.35816 0.849878 0.713309 0.123955 0.292271 0.277597 0.754068 0.148632 0.285488 0.233683 0.785946 0.186522 0.277038 0.186353 0.805972 0.231061 0.267523 0.140613 0.812845 0.283353 0.255353 0.089954 0.805971 0.335645 0.240456 0.040862 0.785943 0.380185 0.271318 0.928762 0.260349 0.972473 0.754062 0.418074 0.281626 0.881834 0.713304 0.442748 0.289683 0.838007 0.660749 0.522466 0.655763 0.495743 0.699265 0.046406 0.748519 0.033178 0.744301 0.058667 0.603012 0.552449 0.582947 0.525738 0.821301 0.062455 0.802715 0.088136 0.559814 0.587423 0.533879 0.563312 0.873194 0.097345 0.847715 0.121833 0.525554 0.634839 0.493615 0.617442 0.907749 0.153486 0.883924 0.168548 0.500349 0.693594 0.46431 0.682327 0.938445 0.217433 0.909563 0.227181 0.487031 0.755945 0.449393 0.754341 0.954785 0.28885 0.92492 0.2892 0.48722 0.814076 0.447394 0.818843 0.961603 0.352281 0.924386 0.347912 0.501948 0.867048 0.466986 0.878153 0.942713 0.411529 0.909722 0.401175 0.53204 0.924262 0.513414 0.942649 0.896988 0.476206 0.87981 0.458768 0.561842 0.958361 0.549472 0.975937 0.861791 0.510134 0.850159 0.493184 0.748615 0.095808 0.794371 0.115381 0.83602 0.145639 0.868387 0.184471 0.892356 0.232952 0.903089 0.28576 0.901159 0.33575 0.886964 0.384217 0.862391 0.425811 0.82813 0.458109 0.58325 0.923426 0.548626 0.891496 0.524018 0.849919 0.510419 0.801519 0.508934 0.751729 0.517998 0.699139 0.541063 0.650913 0.571538 0.611078 0.611297 0.57924 0.656282 0.559029 0.654827 0.48535 0.575034 0.51677 0.524664 0.554101 0.483695 0.609793 0.452894 0.678775 0.43767 0.753973 0.437508 0.817925 0.459816 0.879285 0.508068 0.946845 0.546002 0.980568 0.902348 0.480266 0.865442 0.514867 0.949921 0.412583 0.971437 0.351275 0.966488 0.288339 0.949879 0.213686 0.917505 0.145693 0.880714 0.088954 0.829043 0.053388 0.749404 0.022706 0.655817 0.478642 0.657491 0.476653 0.571421 0.511669 0.571158 0.510294 0.749493 0.014026 0.750714 0.017036 0.834203 0.044366 0.833074 0.0468 0.521006 0.548085 0.52079 0.546588 0.886308 0.081057 0.88466 0.083127 0.480654 0.603921 0.479691 0.603524 0.925617 0.138428 0.923279 0.140206 0.448387 0.676205 0.447039 0.676894 0.959685 0.210457 0.956574 0.21041 0.432639 0.753675 0.43125 0.755583 0.976524 0.288337 0.973632 0.287936 0.433598 0.816568 0.432429 0.818362 0.979526 0.351371 0.976807 0.351159 0.457006 0.879622 0.456385 0.882244 0.955633 0.414705 0.953433 0.413043 0.508028 0.951075 0.507124 0.95322 0.9068 0.48429 0.905493 0.482169 0.544164 0.983565 0.543222 0.985137 0.869474 0.519233 0.867782 0.517815 0.748806 0.01013 0.837099 0.041434 0.888893 0.078125 0.932966 0.13432 0.967699 0.207757 0.984845 0.287231 0.98345 0.351318 0.957222 0.41542 0.908294 0.488712 0.872104 0.521395 </DataArray>
			</PointData>
			<Points>